21
Properties=species:S:1:pos:R:3:forces:R:3 energy=-17617.826906338443 charge=0 spin=1 pbc="F F F"
C        2.13746084      -1.09794747      -0.19298651      -0.62552556      -0.87749034       1.29330383
C        0.88132331       1.10003051      -1.52512707       2.56502997      -2.89618882       0.15626493
C        2.72852366      -0.64495417      -1.35901235      -2.75213741       1.77337251       0.91530054
C        2.05045871       0.43181448      -1.97927324      -0.39983295       0.02187249       0.05394768
C       -3.13430958       1.30858248       0.61286686       0.74066815       0.91375216       0.30934658
C        0.85659345      -0.60175359       0.23576132       0.50360400      -0.90515377       1.85362428
C        0.33428615       0.53085801      -0.36410058      -0.62262973       1.37125950      -1.83421183
O       -1.11545171      -1.12233611       1.67749151       3.43236450      -0.44244175      -0.00445356
O       -2.23926079       0.60416411      -1.57045411       1.13103516       1.46764799       2.49157100
O        1.12675979      -1.50115125       2.40810773      -0.22333394       0.97935132      -2.74167975
C        0.12721811      -1.13662842       1.50227315      -0.73945742       0.70265314      -0.11306858
C       -2.01019625       1.07060160      -0.43521139      -1.99721511      -2.47076763      -1.54832488
O       -0.74212037       1.18419089       0.13712028      -1.96925980       0.36955778       0.94815750
H        0.81156629      -1.87947766       3.20391466      -1.33487175      -0.89268829       1.90693294
H        2.63882394      -1.86635266       0.44709135      -0.43649113       0.19418044      -0.41678192
H        0.45412871       1.81052147      -2.19795815      -0.73429340       1.03619931      -0.08380869
H        3.57241406      -1.09521715      -1.77938372       1.82377469      -0.73644141      -0.77213718
H        2.41930137       0.72935978      -2.92649836       0.68609965       0.64808001      -1.45723826
H       -4.22328880       1.12828799       0.29903782       1.45438799       0.54640641      -0.12534884
H       -2.94435616       0.68785278       1.50734667       0.21953338      -0.66521688      -0.21916839
H       -2.90374843       2.29973565       1.10954616      -0.72144940      -0.13794417      -0.61222740
21
Properties=species:S:1:pos:R:3:forces:R:3 energy=-17618.047421677205 charge=1 spin=2 pbc="F F F"
C        2.01017788      -0.97843255      -0.33918211      -0.80110674       1.06524657       0.74784960
C        1.12901693       1.35446383      -1.43136241      -1.17856753       2.28865096      -0.66767866
C        2.88585291      -0.28190778      -1.16017476      -0.81508028       0.33879416      -1.72381015
C        2.33094812       0.85128818      -1.82127186       1.90980378      -0.90984116      -0.37616135
C       -3.10423541       1.43895964       0.37005893      -0.45281451      -0.86114645       2.30516969
C        0.78805605      -0.42171847       0.17591585       0.66858333       0.00849945      -1.08878369
C        0.37840049       0.81720233      -0.40798597      -2.17786074      -1.06636880       1.26753087
O       -0.58538704      -0.41823136       2.13243545      -0.47247250       0.21839531      -0.36689088
O       -2.11716998      -0.47135863      -0.77573036      -0.30814546      -3.03783153      -1.48923596
O        0.33682466      -2.39180603       1.55232777       0.73387704       0.82152439      -2.10984254
C        0.05200152      -1.04761967       1.30391992       0.49852710      -1.05488378       1.86093671
C       -2.09775961       0.56230953      -0.24302773       2.35900605       3.59551701       1.78151812
O       -0.88646874       1.37658047      -0.08951713       1.36538865      -0.93736344      -0.70017459
H        0.01493895      -2.68936577       2.41051341      -0.55991520       0.39749869       0.63688105
H        2.19376448      -1.99737924      -0.14011604       0.58047539      -1.61071180       0.92217063
H        0.75237702       2.26277378      -1.95718102      -0.13048267      -0.44736505       0.22552025
H        3.80491628      -0.72216685      -1.59149383      -0.14299299      -0.11206791       0.37601974
H        2.77859645       1.22874169      -2.76524699       0.24490735       0.16553489       0.52940215
H       -2.73668392       1.79941086       1.40503254      -0.22786283       0.02165528      -1.60607769
H       -3.30127776       2.18580973      -0.37859005      -0.43872589       1.18432762      -0.25263378
H       -3.98301721       0.83099475       0.60090396      -0.65454135      -0.06806448      -0.27170957
