24
Properties=species:S:1:pos:R:3:forces:R:3 source=spice/SPICE_PubChem_Boron_Silicon_v1_0_spice_135031711_26_0_1/orca.tar.zst reference_source=T data_id=spice charge=0 spin=1 num_atoms=24 num_electrons=186 num_ecp_electrons=0 n_scf_steps=12 n_basis=730 unrestricted=F nl_energy=19.780976955980133 integrated_densities="93.000003561495 93.000003561495 186.00000712299" homo_energy=-9.48120880969823 homo_lumo_gap=9.786847097523923 s_squared=0.0 s_squared_dev=0.0 warnings="_JSON [\"B97M-V or wB97M-V functional requested.libXC variant has now been activated.Any manually given DFX/HFX/RangeSep scaling parameters are IGNORED!\", \"Analytic gradients for DFT-NL dispersion can only be done using the self-consistent method,Switching to SCNL\", \"Self-consistent DFT-NL dispersion not compatible with AutoTRAH.Switching AutoTRAH off\"]" mulliken_charges="-0.240166 -0.251197 -0.232877 -0.264376 -0.224445 -0.239727 -0.352418 -0.629241 -0.660136 -0.185739 -0.181183 0.570761 -1.475828 0.140163 0.699279 0.620455 0.359494 0.373076 0.377723 0.225029 0.286789 0.432368 0.556417 0.29578" lowdin_charges="0.246114 0.339671 0.273312 0.345044 0.320309 0.245713 -0.088908 -0.08151 -0.085771 -0.045642 -0.051774 -0.230193 -0.267817 -0.555733 -0.517096 -0.556247 0.107017 0.104661 0.105683 0.043401 0.075107 0.123085 0.074335 0.077241" nbo_charges="-0.34093 -0.34706 -0.35293 -0.3602 -0.3358 -0.34748 -0.21359 -0.20018 -0.18934 -0.22041 -0.23073 -0.00866 -0.44966 -1.20157 1.46969 1.4807 0.21553 0.21435 0.21356 0.21852 0.21826 0.23223 0.23896 0.29673" composition=C8Cl6H8Si2 smiles="Cl[Si](Cl)(Cl)C(Cc1ccccc1)[Si](Cl)(Cl)Cl" energy=-99324.98913585572 pbc="F F F"
Cl      -2.28675000       1.79548500      -3.43838900       0.93075150      -0.03417567       1.45986606
Cl      -2.74501000       2.18973000      -0.11095000       0.25887643      -0.13961297      -0.45347470
Cl      -0.59165100       4.08197600      -1.67296400      -0.24221455      -0.64885321       0.07958424
Cl       3.08580800      -0.15829500      -1.70782700      -0.33894007       0.35551577      -0.31011769
Cl       0.84985300      -0.15116100      -4.10056900      -0.05979980       0.25899053       0.21468127
Cl       2.20703000       2.77546100      -3.11229800      -0.48024395      -1.31490674       0.47053917
C       -0.63812000      -2.56117200       2.37339900      -0.09803447      -0.35562653       0.86143681
C       -1.44016300      -1.44760200       2.32953000      -0.59182819       0.52561287      -0.57289983
C        0.58234600      -2.56347200       1.71922400      -0.58527625      -1.43301592       0.27798600
C       -1.04150500      -0.33200500       1.61455100       0.98959999      -0.13144956      -0.19267453
C        0.99549400      -1.47586900       1.02552300      -0.04409015       1.06626263      -0.84138519
C        0.20807000      -0.33129700       0.98795700      -0.34310084       0.22168156       0.46472981
C        0.69667900       0.88434000       0.24983900       0.34353684       0.85310022       1.89436941
C        0.13812100       0.93971800      -1.12327000      -1.03154004       0.07643319      -2.94320454
Si      -1.29720200       2.13142100      -1.58111400      -0.11582450       0.61576737      -0.31596531
Si       1.45960500       0.90259500      -2.45576300       1.06539447       0.58788216      -0.50281634
H       -0.96172400      -3.40443200       2.98041600       0.12614090      -0.04134746      -0.33639190
H       -2.44243800      -1.42620100       2.72547100      -0.03835659      -0.23396727       0.43627155
H        1.12043700      -3.49337800       1.65808400       0.37568494      -0.09974441       0.18326233
H       -1.67660700       0.52865700       1.52638800      -0.13205979       0.17690626       0.14892196
H        1.86254900      -1.49958400       0.39089100       0.47922847      -0.07813362       0.15777581
H        0.40585200       1.78197600       0.81663800       0.11519273      -0.15967241      -0.06512440
H        1.79559000       0.88028000       0.25204100      -0.34875562       0.04903459      -0.01048609
H       -0.28626300      -0.04717200      -1.34680900      -0.23434157      -0.11668156      -0.10488384
24
Properties=species:S:1:pos:R:3:forces:R:3 source=spice/SPICE_PubChem_Boron_Silicon_v1_0_spice_135031711_38_0_1/orca.tar.zst reference_source=T data_id=spice charge=0 spin=1 num_atoms=24 num_electrons=186 num_ecp_electrons=0 n_scf_steps=12 n_basis=730 unrestricted=F nl_energy=19.726225186382987 integrated_densities="93.000015087801 93.000015087801 186.000030175602" homo_energy=-9.452827334074815 homo_lumo_gap=9.745703481855081 s_squared=0.0 s_squared_dev=0.0 warnings="_JSON [\"B97M-V or wB97M-V functional requested.libXC variant has now been activated.Any manually given DFX/HFX/RangeSep scaling parameters are IGNORED!\", \"Analytic gradients for DFT-NL dispersion can only be done using the self-consistent method,Switching to SCNL\", \"Self-consistent DFT-NL dispersion not compatible with AutoTRAH.Switching AutoTRAH off\"]" mulliken_charges="-0.276222 -0.23689 -0.219525 -0.268031 -0.239801 -0.248781 -0.343806 -1.16375 -0.610366 0.215105 -0.540911 0.764146 -1.469878 0.097684 0.711419 0.720949 0.394238 0.397865 0.399212 0.242239 0.377013 0.435067 0.503743 0.359281" lowdin_charges="0.283388 0.293511 0.261093 0.406168 0.357912 0.266585 -0.097468 -0.080106 -0.074043 -0.125236 -0.027383 -0.225913 -0.27356 -0.568678 -0.520286 -0.515164 0.1004 0.110493 0.095377 -0.036831 0.104768 0.099357 0.075624 0.089993" nbo_charges="-0.3596 -0.35314 -0.33386 -0.35021 -0.33997 -0.3283 -0.21557 -0.18788 -0.20124 -0.25928 -0.23233 0.06138 -0.46217 -1.2448 1.49227 1.48728 0.21325 0.21326 0.2118 0.2098 0.20943 0.23358 0.23767 0.29864" composition=C8Cl6H8Si2 smiles="Cl[Si](Cl)(Cl)C(Cc1ccccc1)[Si](Cl)(Cl)Cl" energy=-99324.91022647702 pbc="F F F"
Cl      -2.37364400      -2.84835300       2.01648400      -0.47125111       0.84745562      -0.57240052
Cl      -3.75612000      -2.11581100      -0.98469500       0.30257752       0.43182920       0.86586055
Cl      -4.62082600      -0.30159500       1.78110400       1.17457905      -0.66116792      -0.51585276
Cl      -1.30677300       0.80399500      -2.60818900      -1.27009847       0.25092884      -0.02464567
Cl      -1.16557000       2.93356900       0.02463400      -0.30564454      -0.20735378      -0.17142991
Cl      -4.08896600       1.66421600      -0.90281400       1.23709337      -0.34019199       0.05198879
C        3.42159100       0.95762200       0.08038000       0.76126601      -0.25803758       0.39874368
C        2.44288800       1.47767300      -0.68901900      -1.49974675       0.45919618      -0.78592377
C        3.21003000      -0.23232200       0.74875700      -0.10387854      -0.33678878      -0.01046814
C        1.23254800       0.81597700      -0.78522400      -0.52760794      -0.37104878      -0.54322914
C        2.00254900      -0.89978800       0.66393600      -0.29102206       0.66036342      -0.32539550
C        0.97609600      -0.36398000      -0.11822900       0.30609392      -0.23492511       0.92045613
C       -0.38049900      -1.03402600      -0.16249200       0.86772393      -1.85767900       0.22199194
C       -1.53145600      -0.22285500       0.38116200      -1.41912986       0.74902967       0.58232041
Si      -3.03317500      -1.26658200       0.78706000      -0.58891678      -1.01159079       0.25218621
Si      -2.04412700       1.22267300      -0.70255600      -0.25102983       0.56577155      -0.63422152
H        4.35156200       1.47748400       0.10972400       0.66417390       0.09919898       0.31402325
H        2.54808000       2.40608100      -1.22340800       0.25519409       0.16511173      -0.12910528
H        3.99735400      -0.66067600       1.32047000       0.53649980      -0.25452010       0.45598122
H        0.45665900       1.10985900      -1.47301800       0.74298691       0.63118448       0.28968709
H        1.82959200      -1.80926300       1.19696900       0.04387295      -0.48513409       0.31124183
H       -0.32237200      -2.03437900       0.37720800       0.03509973       1.25608611      -0.44780007
H       -0.58120500      -1.30775400      -1.18291200      -0.23496126      -0.16274575      -0.53428644
H       -1.26421700       0.22823700       1.34466600       0.03612585       0.06502788       0.03027752
24
Properties=species:S:1:pos:R:3:forces:R:3 source=spice/SPICE_PubChem_Boron_Silicon_v1_0_spice_135031711_39_0_1/orca.tar.zst reference_source=T data_id=spice charge=0 spin=1 num_atoms=24 num_electrons=186 num_ecp_electrons=0 n_scf_steps=12 n_basis=730 unrestricted=F nl_energy=19.635258809621128 integrated_densities="92.999992045098 92.999992045098 185.999984090196" homo_energy=-9.456772985048348 homo_lumo_gap=9.707525907262891 s_squared=0.0 s_squared_dev=0.0 warnings="_JSON [\"B97M-V or wB97M-V functional requested.libXC variant has now been activated.Any manually given DFX/HFX/RangeSep scaling parameters are IGNORED!\", \"Analytic gradients for DFT-NL dispersion can only be done using the self-consistent method,Switching to SCNL\", \"Self-consistent DFT-NL dispersion not compatible with AutoTRAH.Switching AutoTRAH off\"]" mulliken_charges="-0.298693 -0.260887 -0.220704 -0.261246 -0.275841 -0.176091 -0.291573 -0.735997 -1.0639 -0.219123 0.547665 0.522456 -1.733343 0.120731 0.704585 0.650104 0.354095 0.388133 0.40092 0.386996 0.154623 0.464916 0.456791 0.385383" lowdin_charges="0.356551 0.261679 0.279749 0.316285 0.271065 0.368305 -0.09185 -0.077047 -0.076918 -0.085123 -0.126565 -0.309344 -0.225315 -0.532985 -0.446437 -0.562175 0.109276 0.101483 0.109059 0.091016 -0.008238 0.090701 0.115728 0.071099" nbo_charges="-0.34704 -0.34427 -0.34671 -0.35194 -0.34716 -0.33991 -0.21434 -0.20183 -0.18682 -0.23303 -0.2654 0.05009 -0.45012 -1.24406 1.49049 1.49913 0.21631 0.21685 0.21367 0.20892 0.21515 0.23078 0.23478 0.29647" composition=C8Cl6H8Si2 smiles="Cl[Si](Cl)(Cl)C(Cc1ccccc1)[Si](Cl)(Cl)Cl" energy=-99325.04555097595 pbc="F F F"
Cl      -2.38544800      -2.49016500      -0.52591900      -0.72584356       0.85958002      -0.74904093
Cl      -4.01078300      -0.27908500      -2.55559000       1.14816019      -0.19462692       0.78244691
Cl      -0.71620800      -0.86344800      -3.00482300      -1.08593677      -0.23905101       0.69157718
Cl      -0.45342100       3.66723000       0.14276600      -0.06492735      -0.55305703      -0.38412150
Cl      -1.47957200       2.81811000      -2.94367000       0.32983394      -0.48167205       1.05664532
Cl       1.20253800       1.28230400      -1.59255500      -0.49466692       0.82211791       0.05688844
C        2.86316400      -1.15045600       0.77307100       0.73152020      -0.45590568      -0.14823398
C        2.60618800       0.02876900       1.45289300      -0.59605200       0.01026261      -0.38145301
C        1.82072900      -1.85928600       0.21495300      -0.32833139      -0.39508032       0.23788650
C        1.29263300       0.47461800       1.54002700       0.60109650      -0.61478336      -0.22588459
C        0.51911200      -1.41518600       0.36538400      -0.13650836      -1.23912017      -0.61585016
C        0.24250000      -0.24541600       0.99906000      -0.36496416       1.27941749       0.24510385
C       -1.17404400       0.30321600       1.01558700      -0.18494749      -0.66823238       0.82518889
C       -1.75334300       0.78177600      -0.34814600       0.13037247      -0.33851286      -0.43833918
Si      -2.19973100      -0.64806200      -1.53327300      -0.03176218      -0.22289214      -0.77215504
Si      -0.66559700       2.06250800      -1.15596600       0.62723846       0.46779061      -0.78641243
H        3.86065700      -1.58648800       0.65881900      -0.19015958       0.50764245       0.16548557
H        3.38380900       0.66298000       1.82770900       0.39622425       0.00989546       0.26420092
H        1.99974300      -2.80551200      -0.27763200       0.08220676       0.02736569      -0.09109579
H        1.11210800       1.41011100       1.98293200      -0.30027726       1.12100939       0.62274041
H       -0.31595900      -2.00254700      -0.00464300       0.76966920       0.08228158       0.03756829
H       -1.80304800      -0.52298200       1.36691400      -0.11635580       0.15233078      -0.03594788
H       -1.25183800       1.05224600       1.81782200      -0.03207765       0.15797152      -0.57759564
H       -2.69419100       1.32476300      -0.21572000      -0.16351153      -0.09473163       0.22039770
24
Properties=species:S:1:pos:R:3:forces:R:3 source=spice/SPICE_PubChem_Boron_Silicon_v1_0_spice_135031711_48_0_1/orca.tar.zst reference_source=T data_id=spice charge=0 spin=1 num_atoms=24 num_electrons=186 num_ecp_electrons=0 n_scf_steps=12 n_basis=730 unrestricted=F nl_energy=19.674117992262474 integrated_densities="93.000012246073 93.000012246073 186.000024492145" homo_energy=-9.083269500477883 homo_lumo_gap=8.686554703628632 s_squared=0.0 s_squared_dev=0.0 warnings="_JSON [\"B97M-V or wB97M-V functional requested.libXC variant has now been activated.Any manually given DFX/HFX/RangeSep scaling parameters are IGNORED!\", \"Analytic gradients for DFT-NL dispersion can only be done using the self-consistent method,Switching to SCNL\", \"Self-consistent DFT-NL dispersion not compatible with AutoTRAH.Switching AutoTRAH off\"]" mulliken_charges="-0.191953 -0.255632 -0.2665 -0.26646 -0.284959 -0.218561 -0.516819 -0.59107 -0.539028 -0.492314 -0.167987 0.300445 -1.74142 0.249136 0.629096 0.595181 0.41005 0.250549 0.409369 0.432191 0.303875 0.496791 0.809744 0.646274" lowdin_charges="0.41062 0.256577 0.145805 0.266597 0.240729 0.185803 -0.107328 -0.089583 -0.070897 -0.025433 -0.093249 -0.297436 -0.30453 -0.57629 -0.335398 -0.390455 0.10005 0.118217 0.101732 0.127512 0.115013 0.09683 0.04731 0.077803" nbo_charges="-0.32612 -0.36445 -0.34914 -0.35236 -0.37996 -0.32113 -0.21924 -0.20431 -0.19394 -0.20663 -0.20135 -0.03632 -0.4372 -1.22534 1.50982 1.46596 0.21477 0.21455 0.21715 0.21486 0.21623 0.22862 0.23961 0.29593" composition=C8Cl6H8Si2 smiles="Cl[Si](Cl)(Cl)C(Cc1ccccc1)[Si](Cl)(Cl)Cl" energy=-99321.48206912028 pbc="F F F"
Cl       1.99806800      -1.41632600       0.86145500       0.84529286      -0.36931966      -0.45412699
Cl       2.96332400       1.05834400      -1.31287900      -0.62795430      -2.29721971      -0.09028589
Cl       2.59979500      -2.49647800      -2.52009000       2.14368612      -1.89968290       7.53869625
Cl      -1.57960800      -1.57050400      -3.97317200       1.05213288       0.48096052       0.33437379
Cl      -0.19383500       1.56230200      -3.81685400       0.46347095      -1.96422721       0.20307335
Cl       1.82542500      -1.29936800      -4.30248400      -3.93859507       4.50286700      -4.85842966
C       -0.93670400       0.20482400       3.39567200       1.71090720       0.79443669       0.63255159
C       -1.76243900      -0.31137300       2.44973500      -2.74874875      -0.78902894       0.25607922
C        0.18174000       0.92231000       3.01404300      -0.21188920       0.46921855      -1.59453459
C       -1.59483000      -0.13003600       1.07637300       0.08342788       0.03292159       1.60621727
C        0.35153200       1.15575600       1.64807000       0.73662301       0.82355485       0.64020479
C       -0.50082400       0.63469400       0.70591200      -0.92783762      -1.17166918      -0.19568045
C       -0.31951600       0.69728200      -0.74669700       0.10810543       0.48640683      -1.02698491
C        0.18230100      -0.57371800      -1.39338100       1.39205377      -0.62422358      -2.14711196
Si       1.97239500      -0.90506000      -1.12221400       1.15630056       0.01334768       0.37070842
Si       0.13436200      -0.54411600      -3.30825900      -1.19184355       1.41291000      -1.28617162
H       -1.14681900       0.11838700       4.44055600      -0.25577974      -0.30541926       0.41127539
H       -2.67097500      -0.72712300       2.94246000       0.50777255      -0.19296552      -1.16034280
H        0.89510500       1.41444800       3.64263400       0.01145720      -0.08932903       0.72587616
H       -2.28439400      -0.51070300       0.32002800       0.12905905       0.02033085       0.39319529
H        1.16199800       1.83248100       1.36302900      -0.11705066      -0.41365721      -0.21776736
H       -1.25449600       0.85560600      -1.26039500      -0.50321501       0.69250910       0.16063014
H        0.35843700       1.47575200      -0.99522800       0.34998738       0.92050647      -0.42772397
H       -0.38004100      -1.44738200      -1.10831400      -0.16736284      -0.53322796       0.18627855
24
Properties=species:S:1:pos:R:3:forces:R:3 source=spice/SPICE_PubChem_Boron_Silicon_v1_0_spice_135031711_36_0_1/orca.tar.zst reference_source=T data_id=spice charge=0 spin=1 num_atoms=24 num_electrons=186 num_ecp_electrons=0 n_scf_steps=12 n_basis=730 unrestricted=F nl_energy=19.760421863664764 integrated_densities="92.999993759756 92.999993759756 185.999987519513" homo_energy=-9.340471521180202 homo_lumo_gap=9.649048638696527 s_squared=0.0 s_squared_dev=0.0 warnings="_JSON [\"B97M-V or wB97M-V functional requested.libXC variant has now been activated.Any manually given DFX/HFX/RangeSep scaling parameters are IGNORED!\", \"Analytic gradients for DFT-NL dispersion can only be done using the self-consistent method,Switching to SCNL\", \"Self-consistent DFT-NL dispersion not compatible with AutoTRAH.Switching AutoTRAH off\"]" mulliken_charges="-0.238848 -0.231171 -0.223902 -0.275139 -0.243239 -0.23906 -0.607671 -0.489198 -0.492135 -0.140491 -0.493952 0.928704 -1.612312 0.044779 0.623888 0.682164 0.404147 0.380243 0.358402 0.068894 0.289477 0.669954 0.400623 0.435842" lowdin_charges="0.299378 0.395939 0.299653 0.331106 0.268354 0.264993 -0.068611 -0.08628 -0.074725 -0.051886 -0.072004 -0.220586 -0.27184 -0.55396 -0.575961 -0.508021 0.093782 0.098495 0.102995 0.024573 0.07403 0.044557 0.116802 0.069216" nbo_charges="-0.34152 -0.34659 -0.33439 -0.35351 -0.34089 -0.35374 -0.21752 -0.19847 -0.17974 -0.23246 -0.23969 -0.00122 -0.44172 -1.23185 1.47118 1.50167 0.21718 0.21011 0.21151 0.21969 0.22036 0.22767 0.23547 0.29849" composition=C8Cl6H8Si2 smiles="Cl[Si](Cl)(Cl)C(Cc1ccccc1)[Si](Cl)(Cl)Cl" energy=-99325.02306544382 pbc="F F F"
Cl       2.16172000       2.25268200       2.82876300      -0.17294948       0.20199704      -0.64134517
Cl      -0.72822100       2.91973600       1.35797000       0.31864219       0.24921247       0.34683161
Cl       2.03189500       3.98765300      -0.13443400      -0.38264682      -0.48882768       0.57239158
Cl       2.63364100      -1.35975000      -1.98446100       0.37876687       0.57934929       0.64995364
Cl       4.27236900      -0.38968900       0.89884000      -1.04020722       0.35136045      -1.01940623
Cl       3.84581100       1.69893600      -1.74748500      -0.26239359      -0.78526916       0.47411393
C       -2.57922400      -2.35287500       0.44163700       0.25413783       1.86704912      -0.64167114
C       -1.40490000      -2.58164300      -0.26300900       0.31952659      -0.50483553       0.31487521
C       -2.92802400      -1.00354500       0.68456300      -0.36363464      -1.92433716       0.54248018
C       -0.55740400      -1.56263600      -0.63529100      -1.11627836       1.45697125       0.35473302
C       -2.14103000       0.03810500       0.24587400      -0.14993045       0.24837892       0.04952624
C       -0.95764700      -0.22436500      -0.41229600       1.25080280      -0.57364098      -0.58534731
C        0.05669700       0.84052500      -0.83038500      -1.04633041      -0.18889058      -0.96383723
C        1.28499400       0.76616000       0.07212900       0.85159000       1.17903488       0.65813350
Si       1.23412900       2.44130100       0.98751400       0.62648661      -0.27448158       0.20657658
Si       2.92806500       0.19977900      -0.62010200       0.74777183       0.19179089      -0.46188154
H       -3.23209100      -3.15681900       0.70813000      -0.17704952      -0.28253202       0.30799844
H       -1.07005300      -3.57939300      -0.46065100      -0.07773566      -0.55826341      -0.09259335
H       -3.79965800      -0.84451200       1.31280400      -0.04168622       0.32206391      -0.30336145
H        0.39499500      -1.72787900      -1.09852100       0.03364263      -0.33799581      -0.16236250
H       -2.47039400       1.04461900       0.45748700       0.14178668       0.09582322      -0.08962727
H       -0.41178400       1.83289300      -0.77484300       0.08318388      -0.38964274      -0.21448031
H        0.31148500       0.72000200      -1.89314400       0.03144429      -0.14687546       0.23947241
H        1.12463000       0.04071500       0.85891300      -0.20693998      -0.28743938       0.45882712
